<?xml version="1.0"?><VTKFile type="PolyData" version="0.1" byte_order="LittleEndian"><PolyData>
<Piece NumberOfPoints="3" NumberOfVerts="0" NumberOfLines="0" NumberOfStrips="0" NumberOfPolys="1"><Points><DataArray type="Float32" NumberOfComponents="3" format="ascii">50 40 0 50 60 0 34.4706 36.6453 0</DataArray></Points><PointData><DataArray type="Float32" Name="Velocity" NumberOfComponents="2" format="ascii">0 0 0 0 0 0</DataArray></PointData><CellData><DataArray type="Int32" Name="ID" format="ascii">0 </DataArray><DataArray type="Float32" Name="Density" format="ascii">2500 </DataArray><DataArray type="Float32" Name="Elastic_Modulus" format="ascii">1e+10 </DataArray><DataArray type="Float32" Name="Poisson_Ratio" format="ascii">0.25 </DataArray><DataArray type="Float32" Name="Cohesion" format="ascii">1e+06 </DataArray><DataArray type="Float32" Name="Friction_Angle" format="ascii">45 </DataArray><DataArray type="Float32" Name="Stress" NumberOfComponents="3" format="ascii">0 0 0 </DataArray><DataArray type="Float32" Name="Strain" NumberOfComponents="3" format="ascii">0 0 0 </DataArray></CellData><Polys><DataArray type="Int32" Name="connectivity" format="ascii">0 1 2</DataArray><DataArray type="Int32" Name="offsets" format="ascii">3</DataArray></Polys></Piece>
<Piece NumberOfPoints="3" NumberOfVerts="0" NumberOfLines="0" NumberOfStrips="0" NumberOfPolys="1"><Points><DataArray type="Float32" NumberOfComponents="3" format="ascii">34.4706 36.6453 0 50 60 0 28.9314 51.4286 0</DataArray></Points><PointData><DataArray type="Float32" Name="Velocity" NumberOfComponents="2" format="ascii">0 0 0 0 0 0</DataArray></PointData><CellData><DataArray type="Int32" Name="ID" format="ascii">1 </DataArray><DataArray type="Float32" Name="Density" format="ascii">2500 </DataArray><DataArray type="Float32" Name="Elastic_Modulus" format="ascii">1e+10 </DataArray><DataArray type="Float32" Name="Poisson_Ratio" format="ascii">0.25 </DataArray><DataArray type="Float32" Name="Cohesion" format="ascii">1e+06 </DataArray><DataArray type="Float32" Name="Friction_Angle" format="ascii">45 </DataArray><DataArray type="Float32" Name="Stress" NumberOfComponents="3" format="ascii">0 0 0 </DataArray><DataArray type="Float32" Name="Strain" NumberOfComponents="3" format="ascii">0 0 0 </DataArray></CellData><Polys><DataArray type="Int32" Name="connectivity" format="ascii">0 1 2</DataArray><DataArray type="Int32" Name="offsets" format="ascii">3</DataArray></Polys></Piece>
<Piece NumberOfPoints="3" NumberOfVerts="0" NumberOfLines="0" NumberOfStrips="0" NumberOfPolys="1"><Points><DataArray type="Float32" NumberOfComponents="3" format="ascii">0 60 0 0 40 0 15.925 62.7409 0</DataArray></Points><PointData><DataArray type="Float32" Name="Velocity" NumberOfComponents="2" format="ascii">0 0 0 0 0 0</DataArray></PointData><CellData><DataArray type="Int32" Name="ID" format="ascii">2 </DataArray><DataArray type="Float32" Name="Density" format="ascii">2500 </DataArray><DataArray type="Float32" Name="Elastic_Modulus" format="ascii">1e+10 </DataArray><DataArray type="Float32" Name="Poisson_Ratio" format="ascii">0.25 </DataArray><DataArray type="Float32" Name="Cohesion" format="ascii">1e+06 </DataArray><DataArray type="Float32" Name="Friction_Angle" format="ascii">45 </DataArray><DataArray type="Float32" Name="Stress" NumberOfComponents="3" format="ascii">0 0 0 </DataArray><DataArray type="Float32" Name="Strain" NumberOfComponents="3" format="ascii">0 0 0 </DataArray></CellData><Polys><DataArray type="Int32" Name="connectivity" format="ascii">0 1 2</DataArray><DataArray type="Int32" Name="offsets" format="ascii">3</DataArray></Polys></Piece>
<Piece NumberOfPoints="3" NumberOfVerts="0" NumberOfLines="0" NumberOfStrips="0" NumberOfPolys="1"><Points><DataArray type="Float32" NumberOfComponents="3" format="ascii">0 40 0 16.8562 35.5926 0 15.925 62.7409 0</DataArray></Points><PointData><DataArray type="Float32" Name="Velocity" NumberOfComponents="2" format="ascii">0 0 0 0 0 0</DataArray></PointData><CellData><DataArray type="Int32" Name="ID" format="ascii">3 </DataArray><DataArray type="Float32" Name="Density" format="ascii">2500 </DataArray><DataArray type="Float32" Name="Elastic_Modulus" format="ascii">1e+10 </DataArray><DataArray type="Float32" Name="Poisson_Ratio" format="ascii">0.25 </DataArray><DataArray type="Float32" Name="Cohesion" format="ascii">1e+06 </DataArray><DataArray type="Float32" Name="Friction_Angle" format="ascii">45 </DataArray><DataArray type="Float32" Name="Stress" NumberOfComponents="3" format="ascii">0 0 0 </DataArray><DataArray type="Float32" Name="Strain" NumberOfComponents="3" format="ascii">0 0 0 </DataArray></CellData><Polys><DataArray type="Int32" Name="connectivity" format="ascii">0 1 2</DataArray><DataArray type="Int32" Name="offsets" format="ascii">3</DataArray></Polys></Piece>
<Piece NumberOfPoints="3" NumberOfVerts="0" NumberOfLines="0" NumberOfStrips="0" NumberOfPolys="1"><Points><DataArray type="Float32" NumberOfComponents="3" format="ascii">50 60 0 34.4167 66.3911 0 28.9314 51.4286 0</DataArray></Points><PointData><DataArray type="Float32" Name="Velocity" NumberOfComponents="2" format="ascii">0 0 0 0 0 0</DataArray></PointData><CellData><DataArray type="Int32" Name="ID" format="ascii">4 </DataArray><DataArray type="Float32" Name="Density" format="ascii">2500 </DataArray><DataArray type="Float32" Name="Elastic_Modulus" format="ascii">1e+10 </DataArray><DataArray type="Float32" Name="Poisson_Ratio" format="ascii">0.25 </DataArray><DataArray type="Float32" Name="Cohesion" format="ascii">1e+06 </DataArray><DataArray type="Float32" Name="Friction_Angle" format="ascii">45 </DataArray><DataArray type="Float32" Name="Stress" NumberOfComponents="3" format="ascii">0 0 0 </DataArray><DataArray type="Float32" Name="Strain" NumberOfComponents="3" format="ascii">0 0 0 </DataArray></CellData><Polys><DataArray type="Int32" Name="connectivity" format="ascii">0 1 2</DataArray><DataArray type="Int32" Name="offsets" format="ascii">3</DataArray></Polys></Piece>
<Piece NumberOfPoints="3" NumberOfVerts="0" NumberOfLines="0" NumberOfStrips="0" NumberOfPolys="1"><Points><DataArray type="Float32" NumberOfComponents="3" format="ascii">28.9314 51.4286 0 15.925 62.7409 0 16.8562 35.5926 0</DataArray></Points><PointData><DataArray type="Float32" Name="Velocity" NumberOfComponents="2" format="ascii">0 0 0 0 0 0</DataArray></PointData><CellData><DataArray type="Int32" Name="ID" format="ascii">5 </DataArray><DataArray type="Float32" Name="Density" format="ascii">2500 </DataArray><DataArray type="Float32" Name="Elastic_Modulus" format="ascii">1e+10 </DataArray><DataArray type="Float32" Name="Poisson_Ratio" format="ascii">0.25 </DataArray><DataArray type="Float32" Name="Cohesion" format="ascii">1e+06 </DataArray><DataArray type="Float32" Name="Friction_Angle" format="ascii">45 </DataArray><DataArray type="Float32" Name="Stress" NumberOfComponents="3" format="ascii">0 0 0 </DataArray><DataArray type="Float32" Name="Strain" NumberOfComponents="3" format="ascii">0 0 0 </DataArray></CellData><Polys><DataArray type="Int32" Name="connectivity" format="ascii">0 1 2</DataArray><DataArray type="Int32" Name="offsets" format="ascii">3</DataArray></Polys></Piece>
<Piece NumberOfPoints="3" NumberOfVerts="0" NumberOfLines="0" NumberOfStrips="0" NumberOfPolys="1"><Points><DataArray type="Float32" NumberOfComponents="3" format="ascii">0 80 0 15.925 62.7409 0 13.7653 84.9312 0</DataArray></Points><PointData><DataArray type="Float32" Name="Velocity" NumberOfComponents="2" format="ascii">0 0 0 0 0 0</DataArray></PointData><CellData><DataArray type="Int32" Name="ID" format="ascii">6 </DataArray><DataArray type="Float32" Name="Density" format="ascii">2500 </DataArray><DataArray type="Float32" Name="Elastic_Modulus" format="ascii">1e+10 </DataArray><DataArray type="Float32" Name="Poisson_Ratio" format="ascii">0.25 </DataArray><DataArray type="Float32" Name="Cohesion" format="ascii">1e+06 </DataArray><DataArray type="Float32" Name="Friction_Angle" format="ascii">45 </DataArray><DataArray type="Float32" Name="Stress" NumberOfComponents="3" format="ascii">0 0 0 </DataArray><DataArray type="Float32" Name="Strain" NumberOfComponents="3" format="ascii">0 0 0 </DataArray></CellData><Polys><DataArray type="Int32" Name="connectivity" format="ascii">0 1 2</DataArray><DataArray type="Int32" Name="offsets" format="ascii">3</DataArray></Polys></Piece>
<Piece NumberOfPoints="3" NumberOfVerts="0" NumberOfLines="0" NumberOfStrips="0" NumberOfPolys="1"><Points><DataArray type="Float32" NumberOfComponents="3" format="ascii">0 20 0 13.9205 14.791 0 16.8562 35.5926 0</DataArray></Points><PointData><DataArray type="Float32" Name="Velocity" NumberOfComponents="2" format="ascii">0 0 0 0 0 0</DataArray></PointData><CellData><DataArray type="Int32" Name="ID" format="ascii">7 </DataArray><DataArray type="Float32" Name="Density" format="ascii">2500 </DataArray><DataArray type="Float32" Name="Elastic_Modulus" format="ascii">1e+10 </DataArray><DataArray type="Float32" Name="Poisson_Ratio" format="ascii">0.25 </DataArray><DataArray type="Float32" Name="Cohesion" format="ascii">1e+06 </DataArray><DataArray type="Float32" Name="Friction_Angle" format="ascii">45 </DataArray><DataArray type="Float32" Name="Stress" NumberOfComponents="3" format="ascii">0 0 0 </DataArray><DataArray type="Float32" Name="Strain" NumberOfComponents="3" format="ascii">0 0 0 </DataArray></CellData><Polys><DataArray type="Int32" Name="connectivity" format="ascii">0 1 2</DataArray><DataArray type="Int32" Name="offsets" format="ascii">3</DataArray></Polys></Piece>
<Piece NumberOfPoints="3" NumberOfVerts="0" NumberOfLines="0" NumberOfStrips="0" NumberOfPolys="1"><Points><DataArray type="Float32" NumberOfComponents="3" format="ascii">50 20 0 34.4706 36.6453 0 36.3333 14.4444 0</DataArray></Points><PointData><DataArray type="Float32" Name="Velocity" NumberOfComponents="2" format="ascii">0 0 0 0 0 0</DataArray></PointData><CellData><DataArray type="Int32" Name="ID" format="ascii">8 </DataArray><DataArray type="Float32" Name="Density" format="ascii">2500 </DataArray><DataArray type="Float32" Name="Elastic_Modulus" format="ascii">1e+10 </DataArray><DataArray type="Float32" Name="Poisson_Ratio" format="ascii">0.25 </DataArray><DataArray type="Float32" Name="Cohesion" format="ascii">1e+06 </DataArray><DataArray type="Float32" Name="Friction_Angle" format="ascii">45 </DataArray><DataArray type="Float32" Name="Stress" NumberOfComponents="3" format="ascii">0 0 0 </DataArray><DataArray type="Float32" Name="Strain" NumberOfComponents="3" format="ascii">0 0 0 </DataArray></CellData><Polys><DataArray type="Int32" Name="connectivity" format="ascii">0 1 2</DataArray><DataArray type="Int32" Name="offsets" format="ascii">3</DataArray></Polys></Piece>
<Piece NumberOfPoints="3" NumberOfVerts="0" NumberOfLines="0" NumberOfStrips="0" NumberOfPolys="1"><Points><DataArray type="Float32" NumberOfComponents="3" format="ascii">50 80 0 36.2917 85.5396 0 34.4167 66.3911 0</DataArray></Points><PointData><DataArray type="Float32" Name="Velocity" NumberOfComponents="2" format="ascii">0 0 0 0 0 0</DataArray></PointData><CellData><DataArray type="Int32" Name="ID" format="ascii">9 </DataArray><DataArray type="Float32" Name="Density" format="ascii">2500 </DataArray><DataArray type="Float32" Name="Elastic_Modulus" format="ascii">1e+10 </DataArray><DataArray type="Float32" Name="Poisson_Ratio" format="ascii">0.25 </DataArray><DataArray type="Float32" Name="Cohesion" format="ascii">1e+06 </DataArray><DataArray type="Float32" Name="Friction_Angle" format="ascii">45 </DataArray><DataArray type="Float32" Name="Stress" NumberOfComponents="3" format="ascii">0 0 0 </DataArray><DataArray type="Float32" Name="Strain" NumberOfComponents="3" format="ascii">0 0 0 </DataArray></CellData><Polys><DataArray type="Int32" Name="connectivity" format="ascii">0 1 2</DataArray><DataArray type="Int32" Name="offsets" format="ascii">3</DataArray></Polys></Piece>
<Piece NumberOfPoints="3" NumberOfVerts="0" NumberOfLines="0" NumberOfStrips="0" NumberOfPolys="1"><Points><DataArray type="Float32" NumberOfComponents="3" format="ascii">0 40 0 0 20 0 16.8562 35.5926 0</DataArray></Points><PointData><DataArray type="Float32" Name="Velocity" NumberOfComponents="2" format="ascii">0 0 0 0 0 0</DataArray></PointData><CellData><DataArray type="Int32" Name="ID" format="ascii">10 </DataArray><DataArray type="Float32" Name="Density" format="ascii">2500 </DataArray><DataArray type="Float32" Name="Elastic_Modulus" format="ascii">1e+10 </DataArray><DataArray type="Float32" Name="Poisson_Ratio" format="ascii">0.25 </DataArray><DataArray type="Float32" Name="Cohesion" format="ascii">1e+06 </DataArray><DataArray type="Float32" Name="Friction_Angle" format="ascii">45 </DataArray><DataArray type="Float32" Name="Stress" NumberOfComponents="3" format="ascii">0 0 0 </DataArray><DataArray type="Float32" Name="Strain" NumberOfComponents="3" format="ascii">0 0 0 </DataArray></CellData><Polys><DataArray type="Int32" Name="connectivity" format="ascii">0 1 2</DataArray><DataArray type="Int32" Name="offsets" format="ascii">3</DataArray></Polys></Piece>
<Piece NumberOfPoints="3" NumberOfVerts="0" NumberOfLines="0" NumberOfStrips="0" NumberOfPolys="1"><Points><DataArray type="Float32" NumberOfComponents="3" format="ascii">0 80 0 0 60 0 15.925 62.7409 0</DataArray></Points><PointData><DataArray type="Float32" Name="Velocity" NumberOfComponents="2" format="ascii">0 0 0 0 0 0</DataArray></PointData><CellData><DataArray type="Int32" Name="ID" format="ascii">11 </DataArray><DataArray type="Float32" Name="Density" format="ascii">2500 </DataArray><DataArray type="Float32" Name="Elastic_Modulus" format="ascii">1e+10 </DataArray><DataArray type="Float32" Name="Poisson_Ratio" format="ascii">0.25 </DataArray><DataArray type="Float32" Name="Cohesion" format="ascii">1e+06 </DataArray><DataArray type="Float32" Name="Friction_Angle" format="ascii">45 </DataArray><DataArray type="Float32" Name="Stress" NumberOfComponents="3" format="ascii">0 0 0 </DataArray><DataArray type="Float32" Name="Strain" NumberOfComponents="3" format="ascii">0 0 0 </DataArray></CellData><Polys><DataArray type="Int32" Name="connectivity" format="ascii">0 1 2</DataArray><DataArray type="Int32" Name="offsets" format="ascii">3</DataArray></Polys></Piece>
<Piece NumberOfPoints="3" NumberOfVerts="0" NumberOfLines="0" NumberOfStrips="0" NumberOfPolys="1"><Points><DataArray type="Float32" NumberOfComponents="3" format="ascii">25 76.1111 0 13.7653 84.9312 0 15.925 62.7409 0</DataArray></Points><PointData><DataArray type="Float32" Name="Velocity" NumberOfComponents="2" format="ascii">0 0 0 0 0 0</DataArray></PointData><CellData><DataArray type="Int32" Name="ID" format="ascii">12 </DataArray><DataArray type="Float32" Name="Density" format="ascii">2500 </DataArray><DataArray type="Float32" Name="Elastic_Modulus" format="ascii">1e+10 </DataArray><DataArray type="Float32" Name="Poisson_Ratio" format="ascii">0.25 </DataArray><DataArray type="Float32" Name="Cohesion" format="ascii">1e+06 </DataArray><DataArray type="Float32" Name="Friction_Angle" format="ascii">45 </DataArray><DataArray type="Float32" Name="Stress" NumberOfComponents="3" format="ascii">0 0 0 </DataArray><DataArray type="Float32" Name="Strain" NumberOfComponents="3" format="ascii">0 0 0 </DataArray></CellData><Polys><DataArray type="Int32" Name="connectivity" format="ascii">0 1 2</DataArray><DataArray type="Int32" Name="offsets" format="ascii">3</DataArray></Polys></Piece>
<Piece NumberOfPoints="3" NumberOfVerts="0" NumberOfLines="0" NumberOfStrips="0" NumberOfPolys="1"><Points><DataArray type="Float32" NumberOfComponents="3" format="ascii">25 23.8889 0 16.8562 35.5926 0 13.9205 14.791 0</DataArray></Points><PointData><DataArray type="Float32" Name="Velocity" NumberOfComponents="2" format="ascii">0 0 0 0 0 0</DataArray></PointData><CellData><DataArray type="Int32" Name="ID" format="ascii">13 </DataArray><DataArray type="Float32" Name="Density" format="ascii">2500 </DataArray><DataArray type="Float32" Name="Elastic_Modulus" format="ascii">1e+10 </DataArray><DataArray type="Float32" Name="Poisson_Ratio" format="ascii">0.25 </DataArray><DataArray type="Float32" Name="Cohesion" format="ascii">1e+06 </DataArray><DataArray type="Float32" Name="Friction_Angle" format="ascii">45 </DataArray><DataArray type="Float32" Name="Stress" NumberOfComponents="3" format="ascii">0 0 0 </DataArray><DataArray type="Float32" Name="Strain" NumberOfComponents="3" format="ascii">0 0 0 </DataArray></CellData><Polys><DataArray type="Int32" Name="connectivity" format="ascii">0 1 2</DataArray><DataArray type="Int32" Name="offsets" format="ascii">3</DataArray></Polys></Piece>
<Piece NumberOfPoints="3" NumberOfVerts="0" NumberOfLines="0" NumberOfStrips="0" NumberOfPolys="1"><Points><DataArray type="Float32" NumberOfComponents="3" format="ascii">0 0 0 16.6667 0 0 13.9205 14.791 0</DataArray></Points><PointData><DataArray type="Float32" Name="Velocity" NumberOfComponents="2" format="ascii">0 0 0 0 0 0</DataArray></PointData><CellData><DataArray type="Int32" Name="ID" format="ascii">14 </DataArray><DataArray type="Float32" Name="Density" format="ascii">2500 </DataArray><DataArray type="Float32" Name="Elastic_Modulus" format="ascii">1e+10 </DataArray><DataArray type="Float32" Name="Poisson_Ratio" format="ascii">0.25 </DataArray><DataArray type="Float32" Name="Cohesion" format="ascii">1e+06 </DataArray><DataArray type="Float32" Name="Friction_Angle" format="ascii">45 </DataArray><DataArray type="Float32" Name="Stress" NumberOfComponents="3" format="ascii">0 0 0 </DataArray><DataArray type="Float32" Name="Strain" NumberOfComponents="3" format="ascii">0 0 0 </DataArray></CellData><Polys><DataArray type="Int32" Name="connectivity" format="ascii">0 1 2</DataArray><DataArray type="Int32" Name="offsets" format="ascii">3</DataArray></Polys></Piece>
<Piece NumberOfPoints="3" NumberOfVerts="0" NumberOfLines="0" NumberOfStrips="0" NumberOfPolys="1"><Points><DataArray type="Float32" NumberOfComponents="3" format="ascii">50 0 0 36.3333 14.4444 0 33.3333 0 0</DataArray></Points><PointData><DataArray type="Float32" Name="Velocity" NumberOfComponents="2" format="ascii">0 0 0 0 0 0</DataArray></PointData><CellData><DataArray type="Int32" Name="ID" format="ascii">15 </DataArray><DataArray type="Float32" Name="Density" format="ascii">2500 </DataArray><DataArray type="Float32" Name="Elastic_Modulus" format="ascii">1e+10 </DataArray><DataArray type="Float32" Name="Poisson_Ratio" format="ascii">0.25 </DataArray><DataArray type="Float32" Name="Cohesion" format="ascii">1e+06 </DataArray><DataArray type="Float32" Name="Friction_Angle" format="ascii">45 </DataArray><DataArray type="Float32" Name="Stress" NumberOfComponents="3" format="ascii">0 0 0 </DataArray><DataArray type="Float32" Name="Strain" NumberOfComponents="3" format="ascii">0 0 0 </DataArray></CellData><Polys><DataArray type="Int32" Name="connectivity" format="ascii">0 1 2</DataArray><DataArray type="Int32" Name="offsets" format="ascii">3</DataArray></Polys></Piece>
<Piece NumberOfPoints="3" NumberOfVerts="0" NumberOfLines="0" NumberOfStrips="0" NumberOfPolys="1"><Points><DataArray type="Float32" NumberOfComponents="3" format="ascii">50 100 0 33.3333 100 0 36.2917 85.5396 0</DataArray></Points><PointData><DataArray type="Float32" Name="Velocity" NumberOfComponents="2" format="ascii">0 0 0 0 0 0</DataArray></PointData><CellData><DataArray type="Int32" Name="ID" format="ascii">16 </DataArray><DataArray type="Float32" Name="Density" format="ascii">2500 </DataArray><DataArray type="Float32" Name="Elastic_Modulus" format="ascii">1e+10 </DataArray><DataArray type="Float32" Name="Poisson_Ratio" format="ascii">0.25 </DataArray><DataArray type="Float32" Name="Cohesion" format="ascii">1e+06 </DataArray><DataArray type="Float32" Name="Friction_Angle" format="ascii">45 </DataArray><DataArray type="Float32" Name="Stress" NumberOfComponents="3" format="ascii">0 0 0 </DataArray><DataArray type="Float32" Name="Strain" NumberOfComponents="3" format="ascii">0 0 0 </DataArray></CellData><Polys><DataArray type="Int32" Name="connectivity" format="ascii">0 1 2</DataArray><DataArray type="Int32" Name="offsets" format="ascii">3</DataArray></Polys></Piece>
<Piece NumberOfPoints="3" NumberOfVerts="0" NumberOfLines="0" NumberOfStrips="0" NumberOfPolys="1"><Points><DataArray type="Float32" NumberOfComponents="3" format="ascii">0 100 0 13.7653 84.9312 0 16.6667 100 0</DataArray></Points><PointData><DataArray type="Float32" Name="Velocity" NumberOfComponents="2" format="ascii">0 0 0 0 0 0</DataArray></PointData><CellData><DataArray type="Int32" Name="ID" format="ascii">17 </DataArray><DataArray type="Float32" Name="Density" format="ascii">2500 </DataArray><DataArray type="Float32" Name="Elastic_Modulus" format="ascii">1e+10 </DataArray><DataArray type="Float32" Name="Poisson_Ratio" format="ascii">0.25 </DataArray><DataArray type="Float32" Name="Cohesion" format="ascii">1e+06 </DataArray><DataArray type="Float32" Name="Friction_Angle" format="ascii">45 </DataArray><DataArray type="Float32" Name="Stress" NumberOfComponents="3" format="ascii">0 0 0 </DataArray><DataArray type="Float32" Name="Strain" NumberOfComponents="3" format="ascii">0 0 0 </DataArray></CellData><Polys><DataArray type="Int32" Name="connectivity" format="ascii">0 1 2</DataArray><DataArray type="Int32" Name="offsets" format="ascii">3</DataArray></Polys></Piece>
<Piece NumberOfPoints="3" NumberOfVerts="0" NumberOfLines="0" NumberOfStrips="0" NumberOfPolys="1"><Points><DataArray type="Float32" NumberOfComponents="3" format="ascii">50 20 0 50 40 0 34.4706 36.6453 0</DataArray></Points><PointData><DataArray type="Float32" Name="Velocity" NumberOfComponents="2" format="ascii">0 0 0 0 0 0</DataArray></PointData><CellData><DataArray type="Int32" Name="ID" format="ascii">18 </DataArray><DataArray type="Float32" Name="Density" format="ascii">2500 </DataArray><DataArray type="Float32" Name="Elastic_Modulus" format="ascii">1e+10 </DataArray><DataArray type="Float32" Name="Poisson_Ratio" format="ascii">0.25 </DataArray><DataArray type="Float32" Name="Cohesion" format="ascii">1e+06 </DataArray><DataArray type="Float32" Name="Friction_Angle" format="ascii">45 </DataArray><DataArray type="Float32" Name="Stress" NumberOfComponents="3" format="ascii">0 0 0 </DataArray><DataArray type="Float32" Name="Strain" NumberOfComponents="3" format="ascii">0 0 0 </DataArray></CellData><Polys><DataArray type="Int32" Name="connectivity" format="ascii">0 1 2</DataArray><DataArray type="Int32" Name="offsets" format="ascii">3</DataArray></Polys></Piece>
<Piece NumberOfPoints="3" NumberOfVerts="0" NumberOfLines="0" NumberOfStrips="0" NumberOfPolys="1"><Points><DataArray type="Float32" NumberOfComponents="3" format="ascii">50 60 0 50 80 0 34.4167 66.3911 0</DataArray></Points><PointData><DataArray type="Float32" Name="Velocity" NumberOfComponents="2" format="ascii">0 0 0 0 0 0</DataArray></PointData><CellData><DataArray type="Int32" Name="ID" format="ascii">19 </DataArray><DataArray type="Float32" Name="Density" format="ascii">2500 </DataArray><DataArray type="Float32" Name="Elastic_Modulus" format="ascii">1e+10 </DataArray><DataArray type="Float32" Name="Poisson_Ratio" format="ascii">0.25 </DataArray><DataArray type="Float32" Name="Cohesion" format="ascii">1e+06 </DataArray><DataArray type="Float32" Name="Friction_Angle" format="ascii">45 </DataArray><DataArray type="Float32" Name="Stress" NumberOfComponents="3" format="ascii">0 0 0 </DataArray><DataArray type="Float32" Name="Strain" NumberOfComponents="3" format="ascii">0 0 0 </DataArray></CellData><Polys><DataArray type="Int32" Name="connectivity" format="ascii">0 1 2</DataArray><DataArray type="Int32" Name="offsets" format="ascii">3</DataArray></Polys></Piece>
<Piece NumberOfPoints="3" NumberOfVerts="0" NumberOfLines="0" NumberOfStrips="0" NumberOfPolys="1"><Points><DataArray type="Float32" NumberOfComponents="3" format="ascii">0 0 0 13.9205 14.791 0 0 20 0</DataArray></Points><PointData><DataArray type="Float32" Name="Velocity" NumberOfComponents="2" format="ascii">0 0 0 0 0 0</DataArray></PointData><CellData><DataArray type="Int32" Name="ID" format="ascii">20 </DataArray><DataArray type="Float32" Name="Density" format="ascii">2500 </DataArray><DataArray type="Float32" Name="Elastic_Modulus" format="ascii">1e+10 </DataArray><DataArray type="Float32" Name="Poisson_Ratio" format="ascii">0.25 </DataArray><DataArray type="Float32" Name="Cohesion" format="ascii">1e+06 </DataArray><DataArray type="Float32" Name="Friction_Angle" format="ascii">45 </DataArray><DataArray type="Float32" Name="Stress" NumberOfComponents="3" format="ascii">0 0 0 </DataArray><DataArray type="Float32" Name="Strain" NumberOfComponents="3" format="ascii">0 0 0 </DataArray></CellData><Polys><DataArray type="Int32" Name="connectivity" format="ascii">0 1 2</DataArray><DataArray type="Int32" Name="offsets" format="ascii">3</DataArray></Polys></Piece>
<Piece NumberOfPoints="3" NumberOfVerts="0" NumberOfLines="0" NumberOfStrips="0" NumberOfPolys="1"><Points><DataArray type="Float32" NumberOfComponents="3" format="ascii">50 0 0 50 20 0 36.3333 14.4444 0</DataArray></Points><PointData><DataArray type="Float32" Name="Velocity" NumberOfComponents="2" format="ascii">0 0 0 0 0 0</DataArray></PointData><CellData><DataArray type="Int32" Name="ID" format="ascii">21 </DataArray><DataArray type="Float32" Name="Density" format="ascii">2500 </DataArray><DataArray type="Float32" Name="Elastic_Modulus" format="ascii">1e+10 </DataArray><DataArray type="Float32" Name="Poisson_Ratio" format="ascii">0.25 </DataArray><DataArray type="Float32" Name="Cohesion" format="ascii">1e+06 </DataArray><DataArray type="Float32" Name="Friction_Angle" format="ascii">45 </DataArray><DataArray type="Float32" Name="Stress" NumberOfComponents="3" format="ascii">0 0 0 </DataArray><DataArray type="Float32" Name="Strain" NumberOfComponents="3" format="ascii">0 0 0 </DataArray></CellData><Polys><DataArray type="Int32" Name="connectivity" format="ascii">0 1 2</DataArray><DataArray type="Int32" Name="offsets" format="ascii">3</DataArray></Polys></Piece>
<Piece NumberOfPoints="3" NumberOfVerts="0" NumberOfLines="0" NumberOfStrips="0" NumberOfPolys="1"><Points><DataArray type="Float32" NumberOfComponents="3" format="ascii">50 100 0 36.2917 85.5396 0 50 80 0</DataArray></Points><PointData><DataArray type="Float32" Name="Velocity" NumberOfComponents="2" format="ascii">0 0 0 0 0 0</DataArray></PointData><CellData><DataArray type="Int32" Name="ID" format="ascii">22 </DataArray><DataArray type="Float32" Name="Density" format="ascii">2500 </DataArray><DataArray type="Float32" Name="Elastic_Modulus" format="ascii">1e+10 </DataArray><DataArray type="Float32" Name="Poisson_Ratio" format="ascii">0.25 </DataArray><DataArray type="Float32" Name="Cohesion" format="ascii">1e+06 </DataArray><DataArray type="Float32" Name="Friction_Angle" format="ascii">45 </DataArray><DataArray type="Float32" Name="Stress" NumberOfComponents="3" format="ascii">0 0 0 </DataArray><DataArray type="Float32" Name="Strain" NumberOfComponents="3" format="ascii">0 0 0 </DataArray></CellData><Polys><DataArray type="Int32" Name="connectivity" format="ascii">0 1 2</DataArray><DataArray type="Int32" Name="offsets" format="ascii">3</DataArray></Polys></Piece>
<Piece NumberOfPoints="3" NumberOfVerts="0" NumberOfLines="0" NumberOfStrips="0" NumberOfPolys="1"><Points><DataArray type="Float32" NumberOfComponents="3" format="ascii">0 100 0 0 80 0 13.7653 84.9312 0</DataArray></Points><PointData><DataArray type="Float32" Name="Velocity" NumberOfComponents="2" format="ascii">0 0 0 0 0 0</DataArray></PointData><CellData><DataArray type="Int32" Name="ID" format="ascii">23 </DataArray><DataArray type="Float32" Name="Density" format="ascii">2500 </DataArray><DataArray type="Float32" Name="Elastic_Modulus" format="ascii">1e+10 </DataArray><DataArray type="Float32" Name="Poisson_Ratio" format="ascii">0.25 </DataArray><DataArray type="Float32" Name="Cohesion" format="ascii">1e+06 </DataArray><DataArray type="Float32" Name="Friction_Angle" format="ascii">45 </DataArray><DataArray type="Float32" Name="Stress" NumberOfComponents="3" format="ascii">0 0 0 </DataArray><DataArray type="Float32" Name="Strain" NumberOfComponents="3" format="ascii">0 0 0 </DataArray></CellData><Polys><DataArray type="Int32" Name="connectivity" format="ascii">0 1 2</DataArray><DataArray type="Int32" Name="offsets" format="ascii">3</DataArray></Polys></Piece>
<Piece NumberOfPoints="3" NumberOfVerts="0" NumberOfLines="0" NumberOfStrips="0" NumberOfPolys="1"><Points><DataArray type="Float32" NumberOfComponents="3" format="ascii">25 76.1111 0 34.4167 66.3911 0 36.2917 85.5396 0</DataArray></Points><PointData><DataArray type="Float32" Name="Velocity" NumberOfComponents="2" format="ascii">0 0 0 0 0 0</DataArray></PointData><CellData><DataArray type="Int32" Name="ID" format="ascii">24 </DataArray><DataArray type="Float32" Name="Density" format="ascii">2500 </DataArray><DataArray type="Float32" Name="Elastic_Modulus" format="ascii">1e+10 </DataArray><DataArray type="Float32" Name="Poisson_Ratio" format="ascii">0.25 </DataArray><DataArray type="Float32" Name="Cohesion" format="ascii">1e+06 </DataArray><DataArray type="Float32" Name="Friction_Angle" format="ascii">45 </DataArray><DataArray type="Float32" Name="Stress" NumberOfComponents="3" format="ascii">0 0 0 </DataArray><DataArray type="Float32" Name="Strain" NumberOfComponents="3" format="ascii">0 0 0 </DataArray></CellData><Polys><DataArray type="Int32" Name="connectivity" format="ascii">0 1 2</DataArray><DataArray type="Int32" Name="offsets" format="ascii">3</DataArray></Polys></Piece>