<?xml version="1.0"?><VTKFile type="PolyData" version="0.1" byte_order="LittleEndian"><PolyData>
<Piece NumberOfPoints="3" NumberOfVerts="0" NumberOfLines="0" NumberOfStrips="0" NumberOfPolys="1"><Points><DataArray type="Float32" NumberOfComponents="3" format="ascii">8.24882 3.88659 0 8.64349 3.59154 0 8.68079 4.28608 0</DataArray></Points><PointData><DataArray type="Float32" Name="Velocity" NumberOfComponents="2" format="ascii">0 0 0 0 0 0</DataArray></PointData><CellData><DataArray type="Int32" Name="ID" format="ascii">0 </DataArray><DataArray type="Float32" Name="Density" format="ascii">2500 </DataArray><DataArray type="Float32" Name="Elastic_Modulus" format="ascii">1e+10 </DataArray><DataArray type="Float32" Name="Poisson_Ratio" format="ascii">0.25 </DataArray><DataArray type="Float32" Name="Cohesion" format="ascii">1000 </DataArray><DataArray type="Float32" Name="Friction_Angle" format="ascii">30 </DataArray><DataArray type="Float32" Name="Stress" NumberOfComponents="3" format="ascii">0 0 0 </DataArray><DataArray type="Float32" Name="Strain" NumberOfComponents="3" format="ascii">0 0 0 </DataArray></CellData><Polys><DataArray type="Int32" Name="connectivity" format="ascii">0 1 2</DataArray><DataArray type="Int32" Name="offsets" format="ascii">3</DataArray></Polys></Piece>
<Piece NumberOfPoints="3" NumberOfVerts="0" NumberOfLines="0" NumberOfStrips="0" NumberOfPolys="1"><Points><DataArray type="Float32" NumberOfComponents="3" format="ascii">5.8042 4.60272 0 6.03102 5.03369 0 5.43647 5.0591 0</DataArray></Points><PointData><DataArray type="Float32" Name="Velocity" NumberOfComponents="2" format="ascii">0 0 0 0 0 0</DataArray></PointData><CellData><DataArray type="Int32" Name="ID" format="ascii">1 </DataArray><DataArray type="Float32" Name="Density" format="ascii">2500 </DataArray><DataArray type="Float32" Name="Elastic_Modulus" format="ascii">1e+10 </DataArray><DataArray type="Float32" Name="Poisson_Ratio" format="ascii">0.25 </DataArray><DataArray type="Float32" Name="Cohesion" format="ascii">1000 </DataArray><DataArray type="Float32" Name="Friction_Angle" format="ascii">30 </DataArray><DataArray type="Float32" Name="Stress" NumberOfComponents="3" format="ascii">0 0 0 </DataArray><DataArray type="Float32" Name="Strain" NumberOfComponents="3" format="ascii">0 0 0 </DataArray></CellData><Polys><DataArray type="Int32" Name="connectivity" format="ascii">0 1 2</DataArray><DataArray type="Int32" Name="offsets" format="ascii">3</DataArray></Polys></Piece>
<Piece NumberOfPoints="3" NumberOfVerts="0" NumberOfLines="0" NumberOfStrips="0" NumberOfPolys="1"><Points><DataArray type="Float32" NumberOfComponents="3" format="ascii">17.8141 4.87045 0 17.7877 5.433 0 17.2763 5.21956 0</DataArray></Points><PointData><DataArray type="Float32" Name="Velocity" NumberOfComponents="2" format="ascii">0 0 0 0 0 0</DataArray></PointData><CellData><DataArray type="Int32" Name="ID" format="ascii">2 </DataArray><DataArray type="Float32" Name="Density" format="ascii">2500 </DataArray><DataArray type="Float32" Name="Elastic_Modulus" format="ascii">1e+10 </DataArray><DataArray type="Float32" Name="Poisson_Ratio" format="ascii">0.25 </DataArray><DataArray type="Float32" Name="Cohesion" format="ascii">1000 </DataArray><DataArray type="Float32" Name="Friction_Angle" format="ascii">30 </DataArray><DataArray type="Float32" Name="Stress" NumberOfComponents="3" format="ascii">0 0 0 </DataArray><DataArray type="Float32" Name="Strain" NumberOfComponents="3" format="ascii">0 0 0 </DataArray></CellData><Polys><DataArray type="Int32" Name="connectivity" format="ascii">0 1 2</DataArray><DataArray type="Int32" Name="offsets" format="ascii">3</DataArray></Polys></Piece>
<Piece NumberOfPoints="3" NumberOfVerts="0" NumberOfLines="0" NumberOfStrips="0" NumberOfPolys="1"><Points><DataArray type="Float32" NumberOfComponents="3" format="ascii">7.22745 2.68639 0 6.67065 2.54635 0 7.04034 2.24335 0</DataArray></Points><PointData><DataArray type="Float32" Name="Velocity" NumberOfComponents="2" format="ascii">0 0 0 0 0 0</DataArray></PointData><CellData><DataArray type="Int32" Name="ID" format="ascii">3 </DataArray><DataArray type="Float32" Name="Density" format="ascii">2500 </DataArray><DataArray type="Float32" Name="Elastic_Modulus" format="ascii">1e+10 </DataArray><DataArray type="Float32" Name="Poisson_Ratio" format="ascii">0.25 </DataArray><DataArray type="Float32" Name="Cohesion" format="ascii">1000 </DataArray><DataArray type="Float32" Name="Friction_Angle" format="ascii">30 </DataArray><DataArray type="Float32" Name="Stress" NumberOfComponents="3" format="ascii">0 0 0 </DataArray><DataArray type="Float32" Name="Strain" NumberOfComponents="3" format="ascii">0 0 0 </DataArray></CellData><Polys><DataArray type="Int32" Name="connectivity" format="ascii">0 1 2</DataArray><DataArray type="Int32" Name="offsets" format="ascii">3</DataArray></Polys></Piece>
<Piece NumberOfPoints="3" NumberOfVerts="0" NumberOfLines="0" NumberOfStrips="0" NumberOfPolys="1"><Points><DataArray type="Float32" NumberOfComponents="3" format="ascii">17.2763 5.21956 0 17.3837 4.77184 0 17.8141 4.87045 0</DataArray></Points><PointData><DataArray type="Float32" Name="Velocity" NumberOfComponents="2" format="ascii">0 0 0 0 0 0</DataArray></PointData><CellData><DataArray type="Int32" Name="ID" format="ascii">4 </DataArray><DataArray type="Float32" Name="Density" format="ascii">2500 </DataArray><DataArray type="Float32" Name="Elastic_Modulus" format="ascii">1e+10 </DataArray><DataArray type="Float32" Name="Poisson_Ratio" format="ascii">0.25 </DataArray><DataArray type="Float32" Name="Cohesion" format="ascii">1000 </DataArray><DataArray type="Float32" Name="Friction_Angle" format="ascii">30 </DataArray><DataArray type="Float32" Name="Stress" NumberOfComponents="3" format="ascii">0 0 0 </DataArray><DataArray type="Float32" Name="Strain" NumberOfComponents="3" format="ascii">0 0 0 </DataArray></CellData><Polys><DataArray type="Int32" Name="connectivity" format="ascii">0 1 2</DataArray><DataArray type="Int32" Name="offsets" format="ascii">3</DataArray></Polys></Piece>
<Piece NumberOfPoints="3" NumberOfVerts="0" NumberOfLines="0" NumberOfStrips="0" NumberOfPolys="1"><Points><DataArray type="Float32" NumberOfComponents="3" format="ascii">4.13882 6.56032 0 4.42053 6.06562 0 4.73605 6.50676 0</DataArray></Points><PointData><DataArray type="Float32" Name="Velocity" NumberOfComponents="2" format="ascii">0 0 0 0 0 0</DataArray></PointData><CellData><DataArray type="Int32" Name="ID" format="ascii">5 </DataArray><DataArray type="Float32" Name="Density" format="ascii">2500 </DataArray><DataArray type="Float32" Name="Elastic_Modulus" format="ascii">1e+10 </DataArray><DataArray type="Float32" Name="Poisson_Ratio" format="ascii">0.25 </DataArray><DataArray type="Float32" Name="Cohesion" format="ascii">1000 </DataArray><DataArray type="Float32" Name="Friction_Angle" format="ascii">30 </DataArray><DataArray type="Float32" Name="Stress" NumberOfComponents="3" format="ascii">0 0 0 </DataArray><DataArray type="Float32" Name="Strain" NumberOfComponents="3" format="ascii">0 0 0 </DataArray></CellData><Polys><DataArray type="Int32" Name="connectivity" format="ascii">0 1 2</DataArray><DataArray type="Int32" Name="offsets" format="ascii">3</DataArray></Polys></Piece>
<Piece NumberOfPoints="3" NumberOfVerts="0" NumberOfLines="0" NumberOfStrips="0" NumberOfPolys="1"><Points><DataArray type="Float32" NumberOfComponents="3" format="ascii">16.6746 5.19685 0 16.9181 4.74411 0 17.2763 5.21956 0</DataArray></Points><PointData><DataArray type="Float32" Name="Velocity" NumberOfComponents="2" format="ascii">0 0 0 0 0 0</DataArray></PointData><CellData><DataArray type="Int32" Name="ID" format="ascii">6 </DataArray><DataArray type="Float32" Name="Density" format="ascii">2500 </DataArray><DataArray type="Float32" Name="Elastic_Modulus" format="ascii">1e+10 </DataArray><DataArray type="Float32" Name="Poisson_Ratio" format="ascii">0.25 </DataArray><DataArray type="Float32" Name="Cohesion" format="ascii">1000 </DataArray><DataArray type="Float32" Name="Friction_Angle" format="ascii">30 </DataArray><DataArray type="Float32" Name="Stress" NumberOfComponents="3" format="ascii">0 0 0 </DataArray><DataArray type="Float32" Name="Strain" NumberOfComponents="3" format="ascii">0 0 0 </DataArray></CellData><Polys><DataArray type="Int32" Name="connectivity" format="ascii">0 1 2</DataArray><DataArray type="Int32" Name="offsets" format="ascii">3</DataArray></Polys></Piece>
<Piece NumberOfPoints="3" NumberOfVerts="0" NumberOfLines="0" NumberOfStrips="0" NumberOfPolys="1"><Points><DataArray type="Float32" NumberOfComponents="3" format="ascii">1.10082 5.19344 0 1.46339 4.8428 0 1.72509 5.29456 0</DataArray></Points><PointData><DataArray type="Float32" Name="Velocity" NumberOfComponents="2" format="ascii">0 0 0 0 0 0</DataArray></PointData><CellData><DataArray type="Int32" Name="ID" format="ascii">7 </DataArray><DataArray type="Float32" Name="Density" format="ascii">2500 </DataArray><DataArray type="Float32" Name="Elastic_Modulus" format="ascii">1e+10 </DataArray><DataArray type="Float32" Name="Poisson_Ratio" format="ascii">0.25 </DataArray><DataArray type="Float32" Name="Cohesion" format="ascii">1000 </DataArray><DataArray type="Float32" Name="Friction_Angle" format="ascii">30 </DataArray><DataArray type="Float32" Name="Stress" NumberOfComponents="3" format="ascii">0 0 0 </DataArray><DataArray type="Float32" Name="Strain" NumberOfComponents="3" format="ascii">0 0 0 </DataArray></CellData><Polys><DataArray type="Int32" Name="connectivity" format="ascii">0 1 2</DataArray><DataArray type="Int32" Name="offsets" format="ascii">3</DataArray></Polys></Piece>
<Piece NumberOfPoints="3" NumberOfVerts="0" NumberOfLines="0" NumberOfStrips="0" NumberOfPolys="1"><Points><DataArray type="Float32" NumberOfComponents="3" format="ascii">15.4784 2.0636 0 15.9864 2.38303 0 15.4902 2.59707 0</DataArray></Points><PointData><DataArray type="Float32" Name="Velocity" NumberOfComponents="2" format="ascii">0 0 0 0 0 0</DataArray></PointData><CellData><DataArray type="Int32" Name="ID" format="ascii">8 </DataArray><DataArray type="Float32" Name="Density" format="ascii">2500 </DataArray><DataArray type="Float32" Name="Elastic_Modulus" format="ascii">1e+10 </DataArray><DataArray type="Float32" Name="Poisson_Ratio" format="ascii">0.25 </DataArray><DataArray type="Float32" Name="Cohesion" format="ascii">1000 </DataArray><DataArray type="Float32" Name="Friction_Angle" format="ascii">30 </DataArray><DataArray type="Float32" Name="Stress" NumberOfComponents="3" format="ascii">0 0 0 </DataArray><DataArray type="Float32" Name="Strain" NumberOfComponents="3" format="ascii">0 0 0 </DataArray></CellData><Polys><DataArray type="Int32" Name="connectivity" format="ascii">0 1 2</DataArray><DataArray type="Int32" Name="offsets" format="ascii">3</DataArray></Polys></Piece>
<Piece NumberOfPoints="3" NumberOfVerts="0" NumberOfLines="0" NumberOfStrips="0" NumberOfPolys="1"><Points><DataArray type="Float32" NumberOfComponents="3" format="ascii">13.7015 7.24531 0 13.3585 7.78535 0 13.1601 7.348 0</DataArray></Points><PointData><DataArray type="Float32" Name="Velocity" NumberOfComponents="2" format="ascii">0 0 0 0 0 0</DataArray></PointData><CellData><DataArray type="Int32" Name="ID" format="ascii">9 </DataArray><DataArray type="Float32" Name="Density" format="ascii">2500 </DataArray><DataArray type="Float32" Name="Elastic_Modulus" format="ascii">1e+10 </DataArray><DataArray type="Float32" Name="Poisson_Ratio" format="ascii">0.25 </DataArray><DataArray type="Float32" Name="Cohesion" format="ascii">1000 </DataArray><DataArray type="Float32" Name="Friction_Angle" format="ascii">30 </DataArray><DataArray type="Float32" Name="Stress" NumberOfComponents="3" format="ascii">0 0 0 </DataArray><DataArray type="Float32" Name="Strain" NumberOfComponents="3" format="ascii">0 0 0 </DataArray></CellData><Polys><DataArray type="Int32" Name="connectivity" format="ascii">0 1 2</DataArray><DataArray type="Int32" Name="offsets" format="ascii">3</DataArray></Polys></Piece>
<Piece NumberOfPoints="3" NumberOfVerts="0" NumberOfLines="0" NumberOfStrips="0" NumberOfPolys="1"><Points><DataArray type="Float32" NumberOfComponents="3" format="ascii">13.8471 7.68501 0 13.3585 7.78535 0 13.7015 7.24531 0</DataArray></Points><PointData><DataArray type="Float32" Name="Velocity" NumberOfComponents="2" format="ascii">0 0 0 0 0 0</DataArray></PointData><CellData><DataArray type="Int32" Name="ID" format="ascii">10 </DataArray><DataArray type="Float32" Name="Density" format="ascii">2500 </DataArray><DataArray type="Float32" Name="Elastic_Modulus" format="ascii">1e+10 </DataArray><DataArray type="Float32" Name="Poisson_Ratio" format="ascii">0.25 </DataArray><DataArray type="Float32" Name="Cohesion" format="ascii">1000 </DataArray><DataArray type="Float32" Name="Friction_Angle" format="ascii">30 </DataArray><DataArray type="Float32" Name="Stress" NumberOfComponents="3" format="ascii">0 0 0 </DataArray><DataArray type="Float32" Name="Strain" NumberOfComponents="3" format="ascii">0 0 0 </DataArray></CellData><Polys><DataArray type="Int32" Name="connectivity" format="ascii">0 1 2</DataArray><DataArray type="Int32" Name="offsets" format="ascii">3</DataArray></Polys></Piece>
<Piece NumberOfPoints="3" NumberOfVerts="0" NumberOfLines="0" NumberOfStrips="0" NumberOfPolys="1"><Points><DataArray type="Float32" NumberOfComponents="3" format="ascii">7.28657 6.16699 0 6.84301 6.14152 0 7.16291 5.54852 0</DataArray></Points><PointData><DataArray type="Float32" Name="Velocity" NumberOfComponents="2" format="ascii">0 0 0 0 0 0</DataArray></PointData><CellData><DataArray type="Int32" Name="ID" format="ascii">11 </DataArray><DataArray type="Float32" Name="Density" format="ascii">2500 </DataArray><DataArray type="Float32" Name="Elastic_Modulus" format="ascii">1e+10 </DataArray><DataArray type="Float32" Name="Poisson_Ratio" format="ascii">0.25 </DataArray><DataArray type="Float32" Name="Cohesion" format="ascii">1000 </DataArray><DataArray type="Float32" Name="Friction_Angle" format="ascii">30 </DataArray><DataArray type="Float32" Name="Stress" NumberOfComponents="3" format="ascii">0 0 0 </DataArray><DataArray type="Float32" Name="Strain" NumberOfComponents="3" format="ascii">0 0 0 </DataArray></CellData><Polys><DataArray type="Int32" Name="connectivity" format="ascii">0 1 2</DataArray><DataArray type="Int32" Name="offsets" format="ascii">3</DataArray></Polys></Piece>
<Piece NumberOfPoints="3" NumberOfVerts="0" NumberOfLines="0" NumberOfStrips="0" NumberOfPolys="1"><Points><DataArray type="Float32" NumberOfComponents="3" format="ascii">7.09146 4.31264 0 6.8373 3.8258 0 7.28657 3.83301 0</DataArray></Points><PointData><DataArray type="Float32" Name="Velocity" NumberOfComponents="2" format="ascii">0 0 0 0 0 0</DataArray></PointData><CellData><DataArray type="Int32" Name="ID" format="ascii">12 </DataArray><DataArray type="Float32" Name="Density" format="ascii">2500 </DataArray><DataArray type="Float32" Name="Elastic_Modulus" format="ascii">1e+10 </DataArray><DataArray type="Float32" Name="Poisson_Ratio" format="ascii">0.25 </DataArray><DataArray type="Float32" Name="Cohesion" format="ascii">1000 </DataArray><DataArray type="Float32" Name="Friction_Angle" format="ascii">30 </DataArray><DataArray type="Float32" Name="Stress" NumberOfComponents="3" format="ascii">0 0 0 </DataArray><DataArray type="Float32" Name="Strain" NumberOfComponents="3" format="ascii">0 0 0 </DataArray></CellData><Polys><DataArray type="Int32" Name="connectivity" format="ascii">0 1 2</DataArray><DataArray type="Int32" Name="offsets" format="ascii">3</DataArray></Polys></Piece>
<Piece NumberOfPoints="3" NumberOfVerts="0" NumberOfLines="0" NumberOfStrips="0" NumberOfPolys="1"><Points><DataArray type="Float32" NumberOfComponents="3" format="ascii">15.079 5.65731 0 15.1254 6.2844 0 14.6328 6.08972 0</DataArray></Points><PointData><DataArray type="Float32" Name="Velocity" NumberOfComponents="2" format="ascii">0 0 0 0 0 0</DataArray></PointData><CellData><DataArray type="Int32" Name="ID" format="ascii">13 </DataArray><DataArray type="Float32" Name="Density" format="ascii">2500 </DataArray><DataArray type="Float32" Name="Elastic_Modulus" format="ascii">1e+10 </DataArray><DataArray type="Float32" Name="Poisson_Ratio" format="ascii">0.25 </DataArray><DataArray type="Float32" Name="Cohesion" format="ascii">1000 </DataArray><DataArray type="Float32" Name="Friction_Angle" format="ascii">30 </DataArray><DataArray type="Float32" Name="Stress" NumberOfComponents="3" format="ascii">0 0 0 </DataArray><DataArray type="Float32" Name="Strain" NumberOfComponents="3" format="ascii">0 0 0 </DataArray></CellData><Polys><DataArray type="Int32" Name="connectivity" format="ascii">0 1 2</DataArray><DataArray type="Int32" Name="offsets" format="ascii">3</DataArray></Polys></Piece>
<Piece NumberOfPoints="3" NumberOfVerts="0" NumberOfLines="0" NumberOfStrips="0" NumberOfPolys="1"><Points><DataArray type="Float32" NumberOfComponents="3" format="ascii">7.16291 5.54852 0 6.84301 6.14152 0 6.57814 5.78482 0</DataArray></Points><PointData><DataArray type="Float32" Name="Velocity" NumberOfComponents="2" format="ascii">0 0 0 0 0 0</DataArray></PointData><CellData><DataArray type="Int32" Name="ID" format="ascii">14 </DataArray><DataArray type="Float32" Name="Density" format="ascii">2500 </DataArray><DataArray type="Float32" Name="Elastic_Modulus" format="ascii">1e+10 </DataArray><DataArray type="Float32" Name="Poisson_Ratio" format="ascii">0.25 </DataArray><DataArray type="Float32" Name="Cohesion" format="ascii">1000 </DataArray><DataArray type="Float32" Name="Friction_Angle" format="ascii">30 </DataArray><DataArray type="Float32" Name="Stress" NumberOfComponents="3" format="ascii">0 0 0 </DataArray><DataArray type="Float32" Name="Strain" NumberOfComponents="3" format="ascii">0 0 0 </DataArray></CellData><Polys><DataArray type="Int32" Name="connectivity" format="ascii">0 1 2</DataArray><DataArray type="Int32" Name="offsets" format="ascii">3</DataArray></Polys></Piece>
<Piece NumberOfPoints="3" NumberOfVerts="0" NumberOfLines="0" NumberOfStrips="0" NumberOfPolys="1"><Points><DataArray type="Float32" NumberOfComponents="3" format="ascii">6.58462 4.25096 0 6.8373 3.8258 0 7.09146 4.31264 0</DataArray></Points><PointData><DataArray type="Float32" Name="Velocity" NumberOfComponents="2" format="ascii">0 0 0 0 0 0</DataArray></PointData><CellData><DataArray type="Int32" Name="ID" format="ascii">15 </DataArray><DataArray type="Float32" Name="Density" format="ascii">2500 </DataArray><DataArray type="Float32" Name="Elastic_Modulus" format="ascii">1e+10 </DataArray><DataArray type="Float32" Name="Poisson_Ratio" format="ascii">0.25 </DataArray><DataArray type="Float32" Name="Cohesion" format="ascii">1000 </DataArray><DataArray type="Float32" Name="Friction_Angle" format="ascii">30 </DataArray><DataArray type="Float32" Name="Stress" NumberOfComponents="3" format="ascii">0 0 0 </DataArray><DataArray type="Float32" Name="Strain" NumberOfComponents="3" format="ascii">0 0 0 </DataArray></CellData><Polys><DataArray type="Int32" Name="connectivity" format="ascii">0 1 2</DataArray><DataArray type="Int32" Name="offsets" format="ascii">3</DataArray></Polys></Piece>
<Piece NumberOfPoints="3" NumberOfVerts="0" NumberOfLines="0" NumberOfStrips="0" NumberOfPolys="1"><Points><DataArray type="Float32" NumberOfComponents="3" format="ascii">15.5943 5.99496 0 15.1254 6.2844 0 15.079 5.65731 0</DataArray></Points><PointData><DataArray type="Float32" Name="Velocity" NumberOfComponents="2" format="ascii">0 0 0 0 0 0</DataArray></PointData><CellData><DataArray type="Int32" Name="ID" format="ascii">16 </DataArray><DataArray type="Float32" Name="Density" format="ascii">2500 </DataArray><DataArray type="Float32" Name="Elastic_Modulus" format="ascii">1e+10 </DataArray><DataArray type="Float32" Name="Poisson_Ratio" format="ascii">0.25 </DataArray><DataArray type="Float32" Name="Cohesion" format="ascii">1000 </DataArray><DataArray type="Float32" Name="Friction_Angle" format="ascii">30 </DataArray><DataArray type="Float32" Name="Stress" NumberOfComponents="3" format="ascii">0 0 0 </DataArray><DataArray type="Float32" Name="Strain" NumberOfComponents="3" format="ascii">0 0 0 </DataArray></CellData><Polys><DataArray type="Int32" Name="connectivity" format="ascii">0 1 2</DataArray><DataArray type="Int32" Name="offsets" format="ascii">3</DataArray></Polys></Piece>
<Piece NumberOfPoints="3" NumberOfVerts="0" NumberOfLines="0" NumberOfStrips="0" NumberOfPolys="1"><Points><DataArray type="Float32" NumberOfComponents="3" format="ascii">15.6212 8.07237 0 15.0273 7.97235 0 15.2587 7.67683 0</DataArray></Points><PointData><DataArray type="Float32" Name="Velocity" NumberOfComponents="2" format="ascii">0 0 0 0 0 0</DataArray></PointData><CellData><DataArray type="Int32" Name="ID" format="ascii">17 </DataArray><DataArray type="Float32" Name="Density" format="ascii">2500 </DataArray><DataArray type="Float32" Name="Elastic_Modulus" format="ascii">1e+10 </DataArray><DataArray type="Float32" Name="Poisson_Ratio" format="ascii">0.25 </DataArray><DataArray type="Float32" Name="Cohesion" format="ascii">1000 </DataArray><DataArray type="Float32" Name="Friction_Angle" format="ascii">30 </DataArray><DataArray type="Float32" Name="Stress" NumberOfComponents="3" format="ascii">0 0 0 </DataArray><DataArray type="Float32" Name="Strain" NumberOfComponents="3" format="ascii">0 0 0 </DataArray></CellData><Polys><DataArray type="Int32" Name="connectivity" format="ascii">0 1 2</DataArray><DataArray type="Int32" Name="offsets" format="ascii">3</DataArray></Polys></Piece>
<Piece NumberOfPoints="3" NumberOfVerts="0" NumberOfLines="0" NumberOfStrips="0" NumberOfPolys="1"><Points><DataArray type="Float32" NumberOfComponents="3" format="ascii">12.6853 6.3872 0 12.4888 6.07229 0 12.8956 5.89699 0</DataArray></Points><PointData><DataArray type="Float32" Name="Velocity" NumberOfComponents="2" format="ascii">0 0 0 0 0 0</DataArray></PointData><CellData><DataArray type="Int32" Name="ID" format="ascii">18 </DataArray><DataArray type="Float32" Name="Density" format="ascii">2500 </DataArray><DataArray type="Float32" Name="Elastic_Modulus" format="ascii">1e+10 </DataArray><DataArray type="Float32" Name="Poisson_Ratio" format="ascii">0.25 </DataArray><DataArray type="Float32" Name="Cohesion" format="ascii">1000 </DataArray><DataArray type="Float32" Name="Friction_Angle" format="ascii">30 </DataArray><DataArray type="Float32" Name="Stress" NumberOfComponents="3" format="ascii">0 0 0 </DataArray><DataArray type="Float32" Name="Strain" NumberOfComponents="3" format="ascii">0 0 0 </DataArray></CellData><Polys><DataArray type="Int32" Name="connectivity" format="ascii">0 1 2</DataArray><DataArray type="Int32" Name="offsets" format="ascii">3</DataArray></Polys></Piece>
<Piece NumberOfPoints="3" NumberOfVerts="0" NumberOfLines="0" NumberOfStrips="0" NumberOfPolys="1"><Points><DataArray type="Float32" NumberOfComponents="3" format="ascii">8.24882 3.88659 0 7.76319 3.68587 0 8.19007 3.33077 0</DataArray></Points><PointData><DataArray type="Float32" Name="Velocity" NumberOfComponents="2" format="ascii">0 0 0 0 0 0</DataArray></PointData><CellData><DataArray type="Int32" Name="ID" format="ascii">19 </DataArray><DataArray type="Float32" Name="Density" format="ascii">2500 </DataArray><DataArray type="Float32" Name="Elastic_Modulus" format="ascii">1e+10 </DataArray><DataArray type="Float32" Name="Poisson_Ratio" format="ascii">0.25 </DataArray><DataArray type="Float32" Name="Cohesion" format="ascii">1000 </DataArray><DataArray type="Float32" Name="Friction_Angle" format="ascii">30 </DataArray><DataArray type="Float32" Name="Stress" NumberOfComponents="3" format="ascii">0 0 0 </DataArray><DataArray type="Float32" Name="Strain" NumberOfComponents="3" format="ascii">0 0 0 </DataArray></CellData><Polys><DataArray type="Int32" Name="connectivity" format="ascii">0 1 2</DataArray><DataArray type="Int32" Name="offsets" format="ascii">3</DataArray></Polys></Piece>
<Piece NumberOfPoints="3" NumberOfVerts="0" NumberOfLines="0" NumberOfStrips="0" NumberOfPolys="1"><Points><DataArray type="Float32" NumberOfComponents="3" format="ascii">17.4398 5.80869 0 16.9457 5.62802 0 17.2763 5.21956 0</DataArray></Points><PointData><DataArray type="Float32" Name="Velocity" NumberOfComponents="2" format="ascii">0 0 0 0 0 0</DataArray></PointData><CellData><DataArray type="Int32" Name="ID" format="ascii">20 </DataArray><DataArray type="Float32" Name="Density" format="ascii">2500 </DataArray><DataArray type="Float32" Name="Elastic_Modulus" format="ascii">1e+10 </DataArray><DataArray type="Float32" Name="Poisson_Ratio" format="ascii">0.25 </DataArray><DataArray type="Float32" Name="Cohesion" format="ascii">1000 </DataArray><DataArray type="Float32" Name="Friction_Angle" format="ascii">30 </DataArray><DataArray type="Float32" Name="Stress" NumberOfComponents="3" format="ascii">0 0 0 </DataArray><DataArray type="Float32" Name="Strain" NumberOfComponents="3" format="ascii">0 0 0 </DataArray></CellData><Polys><DataArray type="Int32" Name="connectivity" format="ascii">0 1 2</DataArray><DataArray type="Int32" Name="offsets" format="ascii">3</DataArray></Polys></Piece>
<Piece NumberOfPoints="3" NumberOfVerts="0" NumberOfLines="0" NumberOfStrips="0" NumberOfPolys="1"><Points><DataArray type="Float32" NumberOfComponents="3" format="ascii">15.6212 8.07237 0 15.3777 8.39958 0 15.0273 7.97235 0</DataArray></Points><PointData><DataArray type="Float32" Name="Velocity" NumberOfComponents="2" format="ascii">0 0 0 0 0 0</DataArray></PointData><CellData><DataArray type="Int32" Name="ID" format="ascii">21 </DataArray><DataArray type="Float32" Name="Density" format="ascii">2500 </DataArray><DataArray type="Float32" Name="Elastic_Modulus" format="ascii">1e+10 </DataArray><DataArray type="Float32" Name="Poisson_Ratio" format="ascii">0.25 </DataArray><DataArray type="Float32" Name="Cohesion" format="ascii">1000 </DataArray><DataArray type="Float32" Name="Friction_Angle" format="ascii">30 </DataArray><DataArray type="Float32" Name="Stress" NumberOfComponents="3" format="ascii">0 0 0 </DataArray><DataArray type="Float32" Name="Strain" NumberOfComponents="3" format="ascii">0 0 0 </DataArray></CellData><Polys><DataArray type="Int32" Name="connectivity" format="ascii">0 1 2</DataArray><DataArray type="Int32" Name="offsets" format="ascii">3</DataArray></Polys></Piece>
<Piece NumberOfPoints="3" NumberOfVerts="0" NumberOfLines="0" NumberOfStrips="0" NumberOfPolys="1"><Points><DataArray type="Float32" NumberOfComponents="3" format="ascii">9.42981 6.9226 0 8.92819 7.34581 0 8.90015 6.92556 0</DataArray></Points><PointData><DataArray type="Float32" Name="Velocity" NumberOfComponents="2" format="ascii">0 0 0 0 0 0</DataArray></PointData><CellData><DataArray type="Int32" Name="ID" format="ascii">22 </DataArray><DataArray type="Float32" Name="Density" format="ascii">2500 </DataArray><DataArray type="Float32" Name="Elastic_Modulus" format="ascii">1e+10 </DataArray><DataArray type="Float32" Name="Poisson_Ratio" format="ascii">0.25 </DataArray><DataArray type="Float32" Name="Cohesion" format="ascii">1000 </DataArray><DataArray type="Float32" Name="Friction_Angle" format="ascii">30 </DataArray><DataArray type="Float32" Name="Stress" NumberOfComponents="3" format="ascii">0 0 0 </DataArray><DataArray type="Float32" Name="Strain" NumberOfComponents="3" format="ascii">0 0 0 </DataArray></CellData><Polys><DataArray type="Int32" Name="connectivity" format="ascii">0 1 2</DataArray><DataArray type="Int32" Name="offsets" format="ascii">3</DataArray></Polys></Piece>
<Piece NumberOfPoints="3" NumberOfVerts="0" NumberOfLines="0" NumberOfStrips="0" NumberOfPolys="1"><Points><DataArray type="Float32" NumberOfComponents="3" format="ascii">9.35909 7.50874 0 8.92819 7.34581 0 9.42981 6.9226 0</DataArray></Points><PointData><DataArray type="Float32" Name="Velocity" NumberOfComponents="2" format="ascii">0 0 0 0 0 0</DataArray></PointData><CellData><DataArray type="Int32" Name="ID" format="ascii">23 </DataArray><DataArray type="Float32" Name="Density" format="ascii">2500 </DataArray><DataArray type="Float32" Name="Elastic_Modulus" format="ascii">1e+10 </DataArray><DataArray type="Float32" Name="Poisson_Ratio" format="ascii">0.25 </DataArray><DataArray type="Float32" Name="Cohesion" format="ascii">1000 </DataArray><DataArray type="Float32" Name="Friction_Angle" format="ascii">30 </DataArray><DataArray type="Float32" Name="Stress" NumberOfComponents="3" format="ascii">0 0 0 </DataArray><DataArray type="Float32" Name="Strain" NumberOfComponents="3" format="ascii">0 0 0 </DataArray></CellData><Polys><DataArray type="Int32" Name="connectivity" format="ascii">0 1 2</DataArray><DataArray type="Int32" Name="offsets" format="ascii">3</DataArray></Polys></Piece>